 Gaussian 09, Revision D.01,
 Gaussian 09:  EM64L-G09RevD.01 24-Apr-2013

 --------------------
 #N M062X/cc-pVDZ Opt
 --------------------

 ------------------
 run by gaussian.py
 ------------------
 Symbolic Z-matrix:
 Charge =  0 Multiplicity = 1

 SCF Done:  E(RM062X) =  -119.066453748     A.U. after   13 cycles
 SCF Done:  E(RM062X) =  -119.068070113     A.U. after   11 cycles
 SCF Done:  E(RM062X) =  -119.068198373     A.U. after    8 cycles
 SCF Done:  E(RM062X) =  -119.068202074     A.U. after    7 cycles
 Optimization completed.
    -- Stationary point found.

                         Standard orientation:
 ---------------------------------------------------------------------
 Center     Atomic      Atomic             Coordinates (Angstroms)
 Number     Number       Type             X           Y           Z
 ---------------------------------------------------------------------
      1          6           0        0.000000    1.266458   -0.260222
      2          6           0        0.000000    0.000000    0.590164
      3          6           0        0.000000   -1.266458   -0.260222
      4          1           0        0.888016    1.301372   -0.910504
      5          1           0       -0.888016    1.301372   -0.910504
      6          1           0        0.000000    2.174210    0.360021
      7          1           0        0.881331    0.000000    1.251826
      8          1           0       -0.881331    0.000000    1.251826
      9          1           0        0.888016   -1.301372   -0.910504
     10          1           0        0.000000   -2.174210    0.360021
     11          1           0       -0.888016   -1.301372   -0.910504
 ---------------------------------------------------------------------

 The electronic state is 1-A1.
 Alpha  occ. eigenvalues --  -10.53999 -10.53383 -10.53380  -0.87450  -0.76462
 Alpha  occ. eigenvalues --   -0.66021  -0.52165  -0.49957  -0.45656  -0.43729
 Alpha  occ. eigenvalues --   -0.39117  -0.39063  -0.38087
 Alpha virt. eigenvalues --    0.10283   0.15067   0.15101   0.15222   0.17880
 Alpha virt. eigenvalues --    0.19749   0.20553   0.21343   0.25432   0.29991
 Alpha virt. eigenvalues --    0.43961   0.46248   0.47889   0.48198   0.49986

 Mulliken charges:
               1
     1  C   -0.084913
     2  C   -0.124698
     3  C   -0.084913
     4  H    0.037692
     5  H    0.037692
     6  H    0.037968
     7  H    0.033910
     8  H    0.033910
     9  H    0.037692
    10  H    0.037968
    11  H    0.037692
 Sum of Mulliken charges =   0.00000

 Dipole moment (field-independent basis, Debye):
    X=              0.0000    Y=              0.0000    Z=              0.0653  Tot=              0.0653
 Quadrupole moment (field-independent basis, Debye-Ang):
   XX=            -21.3546   YY=            -22.0434   ZZ=            -21.7702
   XY=              0.0000   XZ=              0.0000   YZ=              0.0000

 Normal termination of Gaussian 09 at Wed Jun  3 09:50:22 2015.
